
Host: node_13

Timers On : Thu Jul 11 09:29:11 2024
Timers Off: Thu Jul 11 09:29:12 2024

Wall Time:        0.82 seconds

                                                       Time (seconds)
Module                                       User      System        Wall        Calls

--------------------------------------------------------------------------------------

**************************************************************************************

Host: node_13

Timers On : Thu Jul 11 09:29:12 2024
Timers Off: Thu Jul 11 09:29:13 2024

Wall Time:        0.68 seconds

                                                       Time (seconds)
Module                                       User      System        Wall        Calls

--------------------------------------------------------------------------------------

**************************************************************************************

Host: node_13

Timers On : Thu Jul 11 09:29:13 2024
Timers Off: Thu Jul 11 09:29:14 2024

Wall Time:        0.65 seconds

                                                       Time (seconds)
Module                                       User      System        Wall        Calls

--------------------------------------------------------------------------------------

**************************************************************************************

Host: node_13

Timers On : Thu Jul 11 09:29:28 2024
Timers Off: Thu Jul 11 09:29:29 2024

Wall Time:        0.70 seconds

                                                       Time (seconds)
Module                                       User      System        Wall        Calls

--------------------------------------------------------------------------------------

**************************************************************************************

Host: node_13

Timers On : Thu Jul 11 09:29:29 2024
Timers Off: Thu Jul 11 09:29:30 2024

Wall Time:        0.69 seconds

                                                       Time (seconds)
Module                                       User      System        Wall        Calls

--------------------------------------------------------------------------------------

**************************************************************************************

Host: node_13

Timers On : Thu Jul 11 09:29:30 2024
Timers Off: Thu Jul 11 09:29:31 2024

Wall Time:        0.71 seconds

                                                       Time (seconds)
Module                                       User      System        Wall        Calls

--------------------------------------------------------------------------------------

**************************************************************************************

Host: node_13

Timers On : Thu Jul 11 09:34:07 2024
Timers Off: Thu Jul 11 09:34:08 2024

Wall Time:        0.71 seconds

                                                       Time (seconds)
Module                                       User      System        Wall        Calls

--------------------------------------------------------------------------------------

**************************************************************************************

Host: node_13

Timers On : Thu Jul 11 09:34:08 2024
Timers Off: Thu Jul 11 09:34:09 2024

Wall Time:        0.70 seconds

                                                       Time (seconds)
Module                                       User      System        Wall        Calls

--------------------------------------------------------------------------------------

**************************************************************************************

Host: node_13

Timers On : Thu Jul 11 09:34:09 2024
Timers Off: Thu Jul 11 09:34:09 2024

Wall Time:        0.69 seconds

                                                       Time (seconds)
Module                                       User      System        Wall        Calls

--------------------------------------------------------------------------------------

**************************************************************************************

Host: node_13

Timers On : Thu Jul 11 09:34:10 2024
Timers Off: Thu Jul 11 09:34:10 2024

Wall Time:        0.70 seconds

                                                       Time (seconds)
Module                                       User      System        Wall        Calls

--------------------------------------------------------------------------------------

**************************************************************************************

Host: node_13

Timers On : Thu Jul 11 09:34:11 2024
Timers Off: Thu Jul 11 09:34:11 2024

Wall Time:        0.70 seconds

                                                       Time (seconds)
Module                                       User      System        Wall        Calls

--------------------------------------------------------------------------------------

**************************************************************************************

Host: node_13

Timers On : Thu Jul 11 10:13:26 2024
Timers Off: Thu Jul 11 10:13:26 2024

Wall Time:        0.73 seconds

                                                       Time (seconds)
Module                                       User      System        Wall        Calls

--------------------------------------------------------------------------------------

**************************************************************************************

Host: node_13

Timers On : Thu Jul 11 10:58:02 2024
Timers Off: Thu Jul 11 10:58:03 2024

Wall Time:        0.84 seconds

                                                       Time (seconds)
Module                                       User      System        Wall        Calls

--------------------------------------------------------------------------------------

**************************************************************************************

Host: node_13

Timers On : Thu Jul 11 10:58:41 2024
Timers Off: Thu Jul 11 10:58:42 2024

Wall Time:        0.82 seconds

                                                       Time (seconds)
Module                                       User      System        Wall        Calls

--------------------------------------------------------------------------------------

**************************************************************************************

Host: node_13

Timers On : Thu Jul 11 11:02:47 2024
Timers Off: Thu Jul 11 11:02:48 2024

Wall Time:        0.79 seconds

                                                       Time (seconds)
Module                                       User      System        Wall        Calls

--------------------------------------------------------------------------------------

**************************************************************************************

Host: node_13

Timers On : Thu Jul 11 11:05:24 2024
Timers Off: Thu Jul 11 11:05:25 2024

Wall Time:        0.83 seconds

                                                       Time (seconds)
Module                                       User      System        Wall        Calls

--------------------------------------------------------------------------------------

**************************************************************************************

Host: node_13

Timers On : Thu Jul 11 11:08:57 2024
Timers Off: Thu Jul 11 11:08:58 2024

Wall Time:        0.94 seconds

                                                       Time (seconds)
Module                                       User      System        Wall        Calls

--------------------------------------------------------------------------------------

**************************************************************************************

Host: node_13

Timers On : Wed Jul 10 14:25:53 2024
Timers Off: Thu Jul 11 11:32:12 2024

Wall Time:    75979.56 seconds

                                                       Time (seconds)
Module                                       User      System        Wall        Calls

--------------------------------------------------------------------------------------

**************************************************************************************

Host: node_13

Timers On : Thu Jul 11 11:35:12 2024
Timers Off: Thu Jul 11 12:03:08 2024

Wall Time:     1675.96 seconds

                                                       Time (seconds)
Module                                       User      System        Wall        Calls

--------------------------------------------------------------------------------------

**************************************************************************************

Host: node_13

Timers On : Thu Jul 11 12:52:41 2024
Timers Off: Thu Jul 11 13:43:51 2024

Wall Time:     3070.15 seconds

                                                       Time (seconds)
Module                                       User      System        Wall        Calls

--------------------------------------------------------------------------------------

**************************************************************************************

Host: node_13

Timers On : Thu Jul 11 13:44:15 2024
Timers Off: Thu Jul 11 13:53:00 2024

Wall Time:      524.69 seconds

                                                       Time (seconds)
Module                                       User      System        Wall        Calls

--------------------------------------------------------------------------------------

**************************************************************************************

Host: node_02

Timers On : Fri Jul 12 09:31:13 2024
Timers Off: Tue Jul 16 10:28:11 2024

Wall Time:   349018.12 seconds

                                                       Time (seconds)
Module                                       User      System        Wall        Calls

--------------------------------------------------------------------------------------

**************************************************************************************

Host: node_13

Timers On : Tue Nov 12 14:37:15 2024
Timers Off: Tue Nov 12 15:03:36 2024

Wall Time:     1581.25 seconds

                                                       Time (seconds)
Module                                       User      System        Wall        Calls

--------------------------------------------------------------------------------------

**************************************************************************************

Host: node_13

Timers On : Tue Nov 12 15:05:27 2024
Timers Off: Tue Nov 12 15:14:51 2024

Wall Time:      563.42 seconds

                                                       Time (seconds)
Module                                       User      System        Wall        Calls

--------------------------------------------------------------------------------------

**************************************************************************************

Host: node_13

Timers On : Tue Nov 12 15:15:49 2024
Timers Off: Tue Nov 12 15:23:54 2024

Wall Time:      484.19 seconds

                                                       Time (seconds)
Module                                       User      System        Wall        Calls

--------------------------------------------------------------------------------------

**************************************************************************************

Host: node_13

Timers On : Tue Nov 12 15:25:51 2024
Timers Off: Thu Nov 14 16:28:17 2024

Wall Time:   176545.77 seconds

                                                       Time (seconds)
Module                                       User      System        Wall        Calls

--------------------------------------------------------------------------------------

**************************************************************************************
